
######################################################################
data_martensiteBCT-AM17-4

# phase info for martensiteBCT-AM17-4 follows
_pd_phase_name  martensiteBCT-AM17-4
_cell_length_a  2.86914(23)
_cell_length_b  2.86914(23)
_cell_length_c  2.8952(3)
_cell_angle_alpha  90
_cell_angle_beta   90
_cell_angle_gamma  90
_cell_volume  23.833(3)
_exptl_crystal_density_diffrn  7.6660
_symmetry_cell_setting  tetragonal
_symmetry_space_group_name_H-M  "I 4/m m m"
loop_
    _space_group_symop_id
    _space_group_symop_operation_xyz
     1  x,y,z
     2  -y,x,z
     3  -x,-y,z
     4  y,-x,z
     5  -x,y,z
     6  -y,-x,z
     7  x,-y,z
     8  y,x,z
     9  -x,-y,-z
    10  y,-x,-z
    11  x,y,-z
    12  -y,x,-z
    13  x,-y,-z
    14  y,x,-z
    15  -x,y,-z
    16  -y,-x,-z
    17  1/2+x,1/2+y,1/2+z
    18  1/2-y,1/2+x,1/2+z
    19  1/2-x,1/2-y,1/2+z
    20  1/2+y,1/2-x,1/2+z
    21  1/2-x,1/2+y,1/2+z
    22  1/2-y,1/2-x,1/2+z
    23  1/2+x,1/2-y,1/2+z
    24  1/2+y,1/2+x,1/2+z
    25  1/2-x,1/2-y,1/2-z
    26  1/2+y,1/2-x,1/2-z
    27  1/2+x,1/2+y,1/2-z
    28  1/2-y,1/2+x,1/2-z
    29  1/2+x,1/2-y,1/2-z
    30  1/2+y,1/2+x,1/2-z
    31  1/2-x,1/2+y,1/2-z
    32  1/2-y,1/2-x,1/2-z

# ATOMIC COORDINATES AND DISPLACEMENT PARAMETERS
loop_ 
   _atom_site_label
   _atom_site_type_symbol
   _atom_site_fract_x
   _atom_site_fract_y
   _atom_site_fract_z
   _atom_site_occupancy
   _atom_site_adp_type
   _atom_site_U_iso_or_equiv
   _atom_site_site_symmetry_multiplicity
Fe1    Fe   0.00000     0.00000     0.00000     0.712      Uiso 0.007      2   
Cr2    Cr   0.00000     0.00000     0.00000     0.179      Uiso 0.007      2   
Ni3    Ni   0.00000     0.00000     0.00000     0.045      Uiso 0.007      2   
Si4    Cu   0.00000     0.00000     0.00000     0.040      Uiso 0.007      2   
C5     Si   0.00000     0.00000     0.00000     0.012      Uiso 0.007      2   
N6     N    0.00000     0.00000     0.00000     0.005      Uiso 0.007      2   
Mn7    Mn   0.00000     0.00000     0.00000     0.004      Uiso 0.007      2   
C8     C    0.00000     0.00000     0.00000     0.002      Uiso 0.007      2   
Nb9    Nb   0.00000     0.00000     0.00000     0.001      Uiso 0.007      2   
O10    O    0.00000     0.00000     0.00000     0.001      Uiso 0.007      2  
